MEA
   274
   9.2408622   8.5619598   8.6213854  10.7608622   8.5619598   8.6213854
  12.1908622   8.5619598   8.6213854   8.5908622   9.8119598   8.6213854
   8.6908622   8.0219598   9.5213854   8.6908622   8.0219598   7.7213854
  10.7608622   9.1019598   9.5213854  10.7608622   9.1019598   7.7213854
  12.5908622   9.3619598   8.6213854   7.6908622   9.8119598   8.6213854
   8.9908622  10.6119598   9.2713854   8.9908622  10.6119598   7.9713854
  10.6903120  12.8012810   8.9024870  15.2701560  14.5315810   7.6753840
  14.8083090  13.7603050   8.0041010  16.0827110  14.5581880   8.1806290
   5.2461220  14.4715520   9.9688490   5.5489260  13.5813260   9.7898710
   5.9904810  15.0285740   9.7410740   3.6751910   5.3977320   3.5572860
   2.7868610   5.7393290   3.4552740   3.9593100   5.1977640   2.6653690
   2.8809790   3.4067330  11.2281490   2.7012630   2.5093080  11.5084250
   2.4789870   3.9539200  11.9028440   5.8513300   3.9808820   4.5911240
   5.9580050   4.8812550   4.8980000   4.9405660   3.9326790   4.3005890
  15.5032410   3.1033630   6.0622140  16.3242030   2.6130200   6.1047620
  15.5366490   3.6931290   6.8153980   3.4996460   5.9027830   9.8363830
   4.1806570   6.1666200  10.4551230   3.1844510   5.0628700  10.1701840
  12.3628220  11.7013060   4.6889740  11.7445490  12.1662510   4.1252460
  12.8751470  12.3940540   5.1059250  15.7393890   5.0434010   8.8349680
  15.0349460   5.3318900   9.4152790  16.1006050   5.8534120   8.4749240
   5.6572460   3.3003710  11.1970290   5.9989270   4.1445760  10.9024160
   4.7188270   3.4487450  11.3135630   6.4379080  13.1969730  13.1822520
   7.0553080  13.8720810  12.9006970   5.5772200  13.6057710  13.0910020
  17.3556670  14.6609140  11.0977160  16.6720190  15.3308250  11.0893830
  17.8950960  14.8589790  10.3322020  16.1860830  13.2269490   4.9012510
  16.0757160  12.2843820   5.0261930  16.1829080  13.5885130   5.7875270
  14.2900850  11.4083110  11.1404950  14.7069640  11.1943220  10.3058410
  15.0140670  11.6655900  11.7113570  11.7281110   8.8534810   4.2575000
  10.8010390   8.7872190   4.4863470  11.8805930   9.7914940   4.1430240
  18.2362950   9.8070330  11.2321190  17.4081580   9.8763420  10.7571320
  18.8313430  10.3924640  10.7637020  15.7578400  10.4155110   4.7610250
  15.1390820  10.0774660   4.1136550  15.7402850   9.7714870   5.4689440
  15.2004960   6.5939650  12.1776060  14.7876140   7.4193360  12.4316050
  14.4680910   6.0084690  11.9852420   6.0466370   6.1542760  10.8193770
   6.5980960   6.2638100  10.0447020   6.5609880   6.5280360  11.5349000
  13.9343100   9.6541920   1.7683000  14.3736380   8.8164350   1.6220820
  14.6471520  10.2871320   1.8547140   5.7209100   9.6762120  14.4299110
   5.5816870  10.5484920  14.7986510   4.8390460   9.3334930  14.2847050
  12.0438480  14.5937990   5.7364240  12.4834390  15.3362320   5.3219630
  11.9825370  14.8364560   6.6603200   4.0342380   8.2744530   4.5401380
   3.9139980   9.0006620   3.9282650   3.7243270   7.5047440   4.0629290
   2.9175380  13.1459860   6.7576200   2.5103460  13.2874450   5.9029800
   3.8088390  12.8620020   6.5547410  18.8737520  13.5923770  15.0948440
  19.0000580  13.3535650  14.1765620  18.9158900  12.7608310  15.5670520
  10.7875850   4.4848120  13.5260370  10.3255220   4.6931140  14.3380310
  10.3853960   3.6707470  13.2231040  15.7880360   5.7057070  14.6557030
  14.9373950   5.4062820  14.9766100  15.6282150   5.9499080  13.7440850
   8.5381940   2.1626930   9.7814650   8.8354270   3.0689760   9.7006670
   9.0867500   1.6745710   9.1674220   6.2920260   6.7413170   5.6506300
   6.0661180   6.5250340   6.5552920   5.5112790   7.1741630   5.3052270
  13.5218020   6.7476540   4.2496950  12.9226910   7.4712340   4.0660570
  14.0697630   6.6853320   3.4673400  12.1282890   5.3840080   6.2800230
  12.5212460   5.7012280   5.4668920  12.4899740   4.5051960   6.3944750
   3.8630010   4.0512420  14.4700350   3.4693400   4.8987630  14.6773130
   3.1748410   3.4138790  14.6608990   9.1515420   4.6500030   8.7803500
   9.1551480   4.2089980   7.9308040  10.0466540   4.9717360   8.8875320
   5.0017800   4.5326520   7.7397710   4.6617850   5.0101750   8.4964760
   4.2395120   4.0791640   7.3798810   9.2135570   5.6512110   1.7710260
   9.3348390   5.6098590   2.7196080   8.8284080   6.5136260   1.6156990
  13.1763940   3.4279510   9.7873950  13.1936680   3.8788160  10.6315800
  12.9279520   2.5285150  10.0007390   3.3026250  11.8625270  15.0460290
   2.9181040  11.2218940  15.6443250   3.6138440  12.5661390  15.6155020
   2.3163880   3.4545500   6.6562380   2.0310800   3.0901170   7.4941000
   2.2542740   2.7225960   6.0425520   7.2422760   7.7510450  12.8453120
   6.9379830   8.6302430  13.0703480   8.1969220   7.8110240  12.8810560
   5.7704550  11.9571440   3.4419970   4.9966810  11.4169060   3.2818690
   6.4999180  11.4378050   3.1037730  16.5292530  10.9536800   9.2346360
  17.2491650  11.4492090   8.8442470  16.3274350  10.2754690   8.5900230
  11.9902470   2.3474760   3.3775750  11.1767080   1.8487930   3.3021060
  11.7964420   3.1873010   2.9612100  11.9111330  11.0245860  15.1215360
  11.8448640  10.1041530  14.8672950  11.2816470  11.1221300  15.8360000
   5.8141950  11.6251820   7.0798780   6.3320620  10.8220080   7.0255670
   5.3625970  11.5630960   7.9215610  10.7011450  12.8918100   2.3526080
  11.0427150  13.6360330   1.8569400   9.8724160  13.2049220   2.7150910
   3.2986490   8.5913190  13.9924480   2.9401430   9.2567040  14.5797820
   3.0041050   7.7596740  14.3637100  11.8428060  13.8466430  14.8719160
  11.8572600  12.9147390  14.6538070  11.1353160  13.9326190  15.5108930
  18.0539270  10.4873770  14.2187740  17.3287460  11.0802550  14.0217130
  18.5814730  10.4797310  13.4201110  18.0052380  14.8848510   3.8699900
  17.3628540  14.2304130   4.1443620  17.6183040  15.2903600   3.0940570
  13.5838860  12.2133940   7.7171590  13.9362680  11.6162070   7.0572960
  12.7001190  11.8878170   7.8879840   9.6702140  12.9731630   5.1242000
  10.3573270  13.5200840   5.5049590   8.8834560  13.5172360   5.1591610
   8.9729350   9.9777660   4.7367360   9.4292130  10.7882910   4.9627550
   8.6217560   9.6600800   5.5685850  11.2761960  15.4884000  11.9659660
  11.9204180  15.6943380  12.6433080  11.6391400  14.7272400  11.5130510
  12.5494040  13.4916350  10.6837110  13.1916270  12.7909510  10.7969280
  13.0743390  14.2714790  10.5034000  14.3231660  14.2911250  13.8873170
  14.6587900  14.8777940  14.5651090  13.4032000  14.1603960  14.1170960
  15.9766010  11.6936910   2.0690410  15.6887710  12.1549600   2.8568290
  16.7718180  11.2334680   2.3374630   8.1934410  15.1863030   1.9994380
   8.1844510  15.9192720   1.3838890   7.2732770  14.9394610   2.0921340
   3.7941050  10.4077920   2.7441140   3.1869000  11.1476820   2.7536440
   4.2690400  10.4977280   1.9179340  13.3673840   4.5728740  12.4198030
  13.7354660   3.7523950  12.7477600  12.5072040   4.6330630  12.8353680
  16.7335870   3.5285680   3.2285590  16.1049030   3.6331350   2.5143820
  16.2387790   3.7482460   4.0179470   8.7019900   5.8071630   4.6443470
   7.9936050   6.2757970   5.0857080   8.9864380   5.1493640   5.2788660
  10.3275830   7.2268330  12.6436000  10.8261080   7.7014150  13.3087850
  10.4698780   6.3031850  12.8506030  12.7335330   2.5322290   6.0839260
  12.6103110   2.5508420   5.1348770  13.6819890   2.5801230   6.2037660
   6.9054920   4.1156710   2.0194180   7.7545450   4.5526860   1.9534370
   6.5386190   4.4276970   2.8466240  17.5342690   3.4436290  13.4864390
  17.0316290   4.1841690  13.8258200  18.3499350   3.8320290  13.1701180
  15.8264700   8.6869470   6.9325750  14.8854840   8.7019700   7.1073440
  16.1408770   7.9005430   7.3786050   7.8365370  10.3654200   2.4672350
   8.2581790  10.1994070   3.3103740   7.9616210   9.5554430   1.9727490
   5.9992790   6.3450750  15.2743330   5.4689250   5.8541700  14.6466670
   6.6680860   6.7734950  14.7401260   6.4865090   3.3113120  15.3540620
   6.3921960   2.6933870  14.6291490   5.9062480   4.0379410  15.1270530
   9.6586080  10.7640690  13.0080450  10.0774190  11.6073420  12.8356690
   8.7394710  10.9012730  12.7787230  11.9949980   8.4956870  14.3918290
  12.1146190   7.8998010  15.1313130  12.8543980   8.5326560  13.9719590
  14.3337880   9.0494060  12.9680800  13.8073100   9.5736680  12.3645940
  14.6769220   9.6821450  13.5990530   1.7683000  15.6319500   7.6858450
   2.0986010  14.7640560   7.4537090   2.1974000  15.8378020   8.5163410
   6.3644920  13.9628510   5.3460420   6.0640460  13.8393480   6.2464330
   6.2582410  13.1037100   4.9376150  17.8935390  16.0007090  14.7117390
  17.2937380  16.0599650  13.9681310  18.0229290  15.0612070  14.8414240
  16.5787030  12.7259070  12.8093550  15.7646870  13.1556230  13.0719340
  16.9861230  13.3377480  12.1962600  18.5377810   8.7175750   4.7023250
  18.1621410   7.9503680   4.2704540  17.8080930   9.0998450   5.1898180
   3.1273570   9.3962890  11.3232300   3.4946610   9.3090290  12.2028320
   2.5584390   8.6329440  11.2239160  17.9277430   7.8647270  14.3362770
  17.6963520   7.6360020  13.4360720  18.1881980   8.7846820  14.2907660
  17.8128770   6.9433240   8.0030490  18.3366250   6.4495890   7.3720660
  18.3988190   7.0783600   8.7478060  17.9918490   7.0273110  11.5250040
  17.0421200   6.9936650  11.6395030  18.1731500   7.9373220  11.2899810
  17.3028740   6.2006590   3.9422900  17.7987860   5.9677460   4.7271780
  17.1044810   5.3618430   3.5260540   8.2431680  15.4655170  12.0862170
   8.0023040  15.7329730  11.1992690   9.1834320  15.6360900  12.1413030
   4.0125910  14.2216210  12.5558270   3.2859970  13.6021500  12.4884220
   4.0735060  14.6156820  11.6856350  16.1264590   1.7683000   8.7922260
  16.5672680   1.7128100   7.9443860  15.8572180   2.6841010   8.8632440
   9.4597740   3.4846650   6.2589200   8.6472250   3.1103540   5.9185080
   9.9639380   2.7291730   6.5610390   5.6626370  14.2970940   2.0900750
   5.0335250  14.7656040   2.6386580   5.7774200  13.4520160   2.5246940
  20.6420520  17.7690090  17.1223620  90.0000000  90.0000000  90.0000000
