%VERSION  VERSION_STAMP = V0001.000  DATE = 02/02/26  16:06:29                  
%FLAG TITLE                                                                     
%FORMAT(20a4)                                                                   
MEA                                                                             
%FLAG POINTERS                                                                  
%FORMAT(10I8)                                                                   
     274      10     269       3      17       2      20       2       0       0
     402      89       3       2       2       9      11       5      10       0
       0       0       0       0       0       0       0       1      12       0
       0
%FLAG ATOM_NAME                                                                 
%FORMAT(20a4)                                                                   
C1  C2  O   N   H1  H2  H3  H4  HO  HN1 HN2 HN3 Cl- O   H1  H2  O   H1  H2  O   
H1  H2  O   H1  H2  O   H1  H2  O   H1  H2  O   H1  H2  O   H1  H2  O   H1  H2  
O   H1  H2  O   H1  H2  O   H1  H2  O   H1  H2  O   H1  H2  O   H1  H2  O   H1  
H2  O   H1  H2  O   H1  H2  O   H1  H2  O   H1  H2  O   H1  H2  O   H1  H2  O   
H1  H2  O   H1  H2  O   H1  H2  O   H1  H2  O   H1  H2  O   H1  H2  O   H1  H2  
O   H1  H2  O   H1  H2  O   H1  H2  O   H1  H2  O   H1  H2  O   H1  H2  O   H1  
H2  O   H1  H2  O   H1  H2  O   H1  H2  O   H1  H2  O   H1  H2  O   H1  H2  O   
H1  H2  O   H1  H2  O   H1  H2  O   H1  H2  O   H1  H2  O   H1  H2  O   H1  H2  
O   H1  H2  O   H1  H2  O   H1  H2  O   H1  H2  O   H1  H2  O   H1  H2  O   H1  
H2  O   H1  H2  O   H1  H2  O   H1  H2  O   H1  H2  O   H1  H2  O   H1  H2  O   
H1  H2  O   H1  H2  O   H1  H2  O   H1  H2  O   H1  H2  O   H1  H2  O   H1  H2  
O   H1  H2  O   H1  H2  O   H1  H2  O   H1  H2  O   H1  H2  O   H1  H2  O   H1  
H2  O   H1  H2  O   H1  H2  O   H1  H2  O   H1  H2  O   H1  H2  O   H1  H2  O   
H1  H2  O   H1  H2  O   H1  H2  O   H1  H2  O   H1  H2  
%FLAG CHARGE                                                                    
%FORMAT(5E16.8)                                                                 
  1.17716058E+00  2.41627698E+00 -1.26827208E+01 -1.76938533E+01  2.18120931E+00
  2.18120931E+00  1.46142846E+00  1.46142846E+00  9.11115000E+00  9.54241717E+00
  9.54241717E+00  9.54241717E+00 -1.82223000E+01 -1.51973982E+01  7.59869910E+00
  7.59869910E+00 -1.51973982E+01  7.59869910E+00  7.59869910E+00 -1.51973982E+01
  7.59869910E+00  7.59869910E+00 -1.51973982E+01  7.59869910E+00  7.59869910E+00
 -1.51973982E+01  7.59869910E+00  7.59869910E+00 -1.51973982E+01  7.59869910E+00
  7.59869910E+00 -1.51973982E+01  7.59869910E+00  7.59869910E+00 -1.51973982E+01
  7.59869910E+00  7.59869910E+00 -1.51973982E+01  7.59869910E+00  7.59869910E+00
 -1.51973982E+01  7.59869910E+00  7.59869910E+00 -1.51973982E+01  7.59869910E+00
  7.59869910E+00 -1.51973982E+01  7.59869910E+00  7.59869910E+00 -1.51973982E+01
  7.59869910E+00  7.59869910E+00 -1.51973982E+01  7.59869910E+00  7.59869910E+00
 -1.51973982E+01  7.59869910E+00  7.59869910E+00 -1.51973982E+01  7.59869910E+00
  7.59869910E+00 -1.51973982E+01  7.59869910E+00  7.59869910E+00 -1.51973982E+01
  7.59869910E+00  7.59869910E+00 -1.51973982E+01  7.59869910E+00  7.59869910E+00
 -1.51973982E+01  7.59869910E+00  7.59869910E+00 -1.51973982E+01  7.59869910E+00
  7.59869910E+00 -1.51973982E+01  7.59869910E+00  7.59869910E+00 -1.51973982E+01
  7.59869910E+00  7.59869910E+00 -1.51973982E+01  7.59869910E+00  7.59869910E+00
 -1.51973982E+01  7.59869910E+00  7.59869910E+00 -1.51973982E+01  7.59869910E+00
  7.59869910E+00 -1.51973982E+01  7.59869910E+00  7.59869910E+00 -1.51973982E+01
  7.59869910E+00  7.59869910E+00 -1.51973982E+01  7.59869910E+00  7.59869910E+00
 -1.51973982E+01  7.59869910E+00  7.59869910E+00 -1.51973982E+01  7.59869910E+00
  7.59869910E+00 -1.51973982E+01  7.59869910E+00  7.59869910E+00 -1.51973982E+01
  7.59869910E+00  7.59869910E+00 -1.51973982E+01  7.59869910E+00  7.59869910E+00
 -1.51973982E+01  7.59869910E+00  7.59869910E+00 -1.51973982E+01  7.59869910E+00
  7.59869910E+00 -1.51973982E+01  7.59869910E+00  7.59869910E+00 -1.51973982E+01
  7.59869910E+00  7.59869910E+00 -1.51973982E+01  7.59869910E+00  7.59869910E+00
 -1.51973982E+01  7.59869910E+00  7.59869910E+00 -1.51973982E+01  7.59869910E+00
  7.59869910E+00 -1.51973982E+01  7.59869910E+00  7.59869910E+00 -1.51973982E+01
  7.59869910E+00  7.59869910E+00 -1.51973982E+01  7.59869910E+00  7.59869910E+00
 -1.51973982E+01  7.59869910E+00  7.59869910E+00 -1.51973982E+01  7.59869910E+00
  7.59869910E+00 -1.51973982E+01  7.59869910E+00  7.59869910E+00 -1.51973982E+01
  7.59869910E+00  7.59869910E+00 -1.51973982E+01  7.59869910E+00  7.59869910E+00
 -1.51973982E+01  7.59869910E+00  7.59869910E+00 -1.51973982E+01  7.59869910E+00
  7.59869910E+00 -1.51973982E+01  7.59869910E+00  7.59869910E+00 -1.51973982E+01
  7.59869910E+00  7.59869910E+00 -1.51973982E+01  7.59869910E+00  7.59869910E+00
 -1.51973982E+01  7.59869910E+00  7.59869910E+00 -1.51973982E+01  7.59869910E+00
  7.59869910E+00 -1.51973982E+01  7.59869910E+00  7.59869910E+00 -1.51973982E+01
  7.59869910E+00  7.59869910E+00 -1.51973982E+01  7.59869910E+00  7.59869910E+00
 -1.51973982E+01  7.59869910E+00  7.59869910E+00 -1.51973982E+01  7.59869910E+00
  7.59869910E+00 -1.51973982E+01  7.59869910E+00  7.59869910E+00 -1.51973982E+01
  7.59869910E+00  7.59869910E+00 -1.51973982E+01  7.59869910E+00  7.59869910E+00
 -1.51973982E+01  7.59869910E+00  7.59869910E+00 -1.51973982E+01  7.59869910E+00
  7.59869910E+00 -1.51973982E+01  7.59869910E+00  7.59869910E+00 -1.51973982E+01
  7.59869910E+00  7.59869910E+00 -1.51973982E+01  7.59869910E+00  7.59869910E+00
 -1.51973982E+01  7.59869910E+00  7.59869910E+00 -1.51973982E+01  7.59869910E+00
  7.59869910E+00 -1.51973982E+01  7.59869910E+00  7.59869910E+00 -1.51973982E+01
  7.59869910E+00  7.59869910E+00 -1.51973982E+01  7.59869910E+00  7.59869910E+00
 -1.51973982E+01  7.59869910E+00  7.59869910E+00 -1.51973982E+01  7.59869910E+00
  7.59869910E+00 -1.51973982E+01  7.59869910E+00  7.59869910E+00 -1.51973982E+01
  7.59869910E+00  7.59869910E+00 -1.51973982E+01  7.59869910E+00  7.59869910E+00
 -1.51973982E+01  7.59869910E+00  7.59869910E+00 -1.51973982E+01  7.59869910E+00
  7.59869910E+00 -1.51973982E+01  7.59869910E+00  7.59869910E+00 -1.51973982E+01
  7.59869910E+00  7.59869910E+00 -1.51973982E+01  7.59869910E+00  7.59869910E+00
 -1.51973982E+01  7.59869910E+00  7.59869910E+00 -1.51973982E+01  7.59869910E+00
  7.59869910E+00 -1.51973982E+01  7.59869910E+00  7.59869910E+00
%FLAG ATOMIC_NUMBER                                                             
%FORMAT(10I8)                                                                   
       6       6       8       7       1       1       1       1       1       1
       1       1      17       8       1       1       8       1       1       8
       1       1       8       1       1       8       1       1       8       1
       1       8       1       1       8       1       1       8       1       1
       8       1       1       8       1       1       8       1       1       8
       1       1       8       1       1       8       1       1       8       1
       1       8       1       1       8       1       1       8       1       1
       8       1       1       8       1       1       8       1       1       8
       1       1       8       1       1       8       1       1       8       1
       1       8       1       1       8       1       1       8       1       1
       8       1       1       8       1       1       8       1       1       8
       1       1       8       1       1       8       1       1       8       1
       1       8       1       1       8       1       1       8       1       1
       8       1       1       8       1       1       8       1       1       8
       1       1       8       1       1       8       1       1       8       1
       1       8       1       1       8       1       1       8       1       1
       8       1       1       8       1       1       8       1       1       8
       1       1       8       1       1       8       1       1       8       1
       1       8       1       1       8       1       1       8       1       1
       8       1       1       8       1       1       8       1       1       8
       1       1       8       1       1       8       1       1       8       1
       1       8       1       1       8       1       1       8       1       1
       8       1       1       8       1       1       8       1       1       8
       1       1       8       1       1       8       1       1       8       1
       1       8       1       1       8       1       1       8       1       1
       8       1       1       8       1       1       8       1       1       8
       1       1       8       1       1       8       1       1       8       1
       1       8       1       1
%FLAG MASS                                                                      
%FORMAT(5E16.8)                                                                 
  1.20100000E+01  1.20100000E+01  1.60000000E+01  1.40100000E+01  1.00800000E+00
  1.00800000E+00  1.00800000E+00  1.00800000E+00  1.00800000E+00  1.00800000E+00
  1.00800000E+00  1.00800000E+00  3.54500000E+01  1.60000000E+01  1.00800000E+00
  1.00800000E+00  1.60000000E+01  1.00800000E+00  1.00800000E+00  1.60000000E+01
  1.00800000E+00  1.00800000E+00  1.60000000E+01  1.00800000E+00  1.00800000E+00
  1.60000000E+01  1.00800000E+00  1.00800000E+00  1.60000000E+01  1.00800000E+00
  1.00800000E+00  1.60000000E+01  1.00800000E+00  1.00800000E+00  1.60000000E+01
  1.00800000E+00  1.00800000E+00  1.60000000E+01  1.00800000E+00  1.00800000E+00
  1.60000000E+01  1.00800000E+00  1.00800000E+00  1.60000000E+01  1.00800000E+00
  1.00800000E+00  1.60000000E+01  1.00800000E+00  1.00800000E+00  1.60000000E+01
  1.00800000E+00  1.00800000E+00  1.60000000E+01  1.00800000E+00  1.00800000E+00
  1.60000000E+01  1.00800000E+00  1.00800000E+00  1.60000000E+01  1.00800000E+00
  1.00800000E+00  1.60000000E+01  1.00800000E+00  1.00800000E+00  1.60000000E+01
  1.00800000E+00  1.00800000E+00  1.60000000E+01  1.00800000E+00  1.00800000E+00
  1.60000000E+01  1.00800000E+00  1.00800000E+00  1.60000000E+01  1.00800000E+00
  1.00800000E+00  1.60000000E+01  1.00800000E+00  1.00800000E+00  1.60000000E+01
  1.00800000E+00  1.00800000E+00  1.60000000E+01  1.00800000E+00  1.00800000E+00
  1.60000000E+01  1.00800000E+00  1.00800000E+00  1.60000000E+01  1.00800000E+00
  1.00800000E+00  1.60000000E+01  1.00800000E+00  1.00800000E+00  1.60000000E+01
  1.00800000E+00  1.00800000E+00  1.60000000E+01  1.00800000E+00  1.00800000E+00
  1.60000000E+01  1.00800000E+00  1.00800000E+00  1.60000000E+01  1.00800000E+00
  1.00800000E+00  1.60000000E+01  1.00800000E+00  1.00800000E+00  1.60000000E+01
  1.00800000E+00  1.00800000E+00  1.60000000E+01  1.00800000E+00  1.00800000E+00
  1.60000000E+01  1.00800000E+00  1.00800000E+00  1.60000000E+01  1.00800000E+00
  1.00800000E+00  1.60000000E+01  1.00800000E+00  1.00800000E+00  1.60000000E+01
  1.00800000E+00  1.00800000E+00  1.60000000E+01  1.00800000E+00  1.00800000E+00
  1.60000000E+01  1.00800000E+00  1.00800000E+00  1.60000000E+01  1.00800000E+00
  1.00800000E+00  1.60000000E+01  1.00800000E+00  1.00800000E+00  1.60000000E+01
  1.00800000E+00  1.00800000E+00  1.60000000E+01  1.00800000E+00  1.00800000E+00
  1.60000000E+01  1.00800000E+00  1.00800000E+00  1.60000000E+01  1.00800000E+00
  1.00800000E+00  1.60000000E+01  1.00800000E+00  1.00800000E+00  1.60000000E+01
  1.00800000E+00  1.00800000E+00  1.60000000E+01  1.00800000E+00  1.00800000E+00
  1.60000000E+01  1.00800000E+00  1.00800000E+00  1.60000000E+01  1.00800000E+00
  1.00800000E+00  1.60000000E+01  1.00800000E+00  1.00800000E+00  1.60000000E+01
  1.00800000E+00  1.00800000E+00  1.60000000E+01  1.00800000E+00  1.00800000E+00
  1.60000000E+01  1.00800000E+00  1.00800000E+00  1.60000000E+01  1.00800000E+00
  1.00800000E+00  1.60000000E+01  1.00800000E+00  1.00800000E+00  1.60000000E+01
  1.00800000E+00  1.00800000E+00  1.60000000E+01  1.00800000E+00  1.00800000E+00
  1.60000000E+01  1.00800000E+00  1.00800000E+00  1.60000000E+01  1.00800000E+00
  1.00800000E+00  1.60000000E+01  1.00800000E+00  1.00800000E+00  1.60000000E+01
  1.00800000E+00  1.00800000E+00  1.60000000E+01  1.00800000E+00  1.00800000E+00
  1.60000000E+01  1.00800000E+00  1.00800000E+00  1.60000000E+01  1.00800000E+00
  1.00800000E+00  1.60000000E+01  1.00800000E+00  1.00800000E+00  1.60000000E+01
  1.00800000E+00  1.00800000E+00  1.60000000E+01  1.00800000E+00  1.00800000E+00
  1.60000000E+01  1.00800000E+00  1.00800000E+00  1.60000000E+01  1.00800000E+00
  1.00800000E+00  1.60000000E+01  1.00800000E+00  1.00800000E+00  1.60000000E+01
  1.00800000E+00  1.00800000E+00  1.60000000E+01  1.00800000E+00  1.00800000E+00
  1.60000000E+01  1.00800000E+00  1.00800000E+00  1.60000000E+01  1.00800000E+00
  1.00800000E+00  1.60000000E+01  1.00800000E+00  1.00800000E+00  1.60000000E+01
  1.00800000E+00  1.00800000E+00  1.60000000E+01  1.00800000E+00  1.00800000E+00
  1.60000000E+01  1.00800000E+00  1.00800000E+00  1.60000000E+01  1.00800000E+00
  1.00800000E+00  1.60000000E+01  1.00800000E+00  1.00800000E+00  1.60000000E+01
  1.00800000E+00  1.00800000E+00  1.60000000E+01  1.00800000E+00  1.00800000E+00
  1.60000000E+01  1.00800000E+00  1.00800000E+00  1.60000000E+01  1.00800000E+00
  1.00800000E+00  1.60000000E+01  1.00800000E+00  1.00800000E+00
%FLAG ATOM_TYPE_INDEX                                                           
%FORMAT(10I8)                                                                   
       1       1       2       3       4       4       5       5       6       7
       7       7       8       9      10      10       9      10      10       9
      10      10       9      10      10       9      10      10       9      10
      10       9      10      10       9      10      10       9      10      10
       9      10      10       9      10      10       9      10      10       9
      10      10       9      10      10       9      10      10       9      10
      10       9      10      10       9      10      10       9      10      10
       9      10      10       9      10      10       9      10      10       9
      10      10       9      10      10       9      10      10       9      10
      10       9      10      10       9      10      10       9      10      10
       9      10      10       9      10      10       9      10      10       9
      10      10       9      10      10       9      10      10       9      10
      10       9      10      10       9      10      10       9      10      10
       9      10      10       9      10      10       9      10      10       9
      10      10       9      10      10       9      10      10       9      10
      10       9      10      10       9      10      10       9      10      10
       9      10      10       9      10      10       9      10      10       9
      10      10       9      10      10       9      10      10       9      10
      10       9      10      10       9      10      10       9      10      10
       9      10      10       9      10      10       9      10      10       9
      10      10       9      10      10       9      10      10       9      10
      10       9      10      10       9      10      10       9      10      10
       9      10      10       9      10      10       9      10      10       9
      10      10       9      10      10       9      10      10       9      10
      10       9      10      10       9      10      10       9      10      10
       9      10      10       9      10      10       9      10      10       9
      10      10       9      10      10       9      10      10       9      10
      10       9      10      10
%FLAG NUMBER_EXCLUDED_ATOMS                                                     
%FORMAT(10I8)                                                                   
      11      10       6       7       6       5       2       1       1       2
       1       1       1       2       1       1       2       1       1       2
       1       1       2       1       1       2       1       1       2       1
       1       2       1       1       2       1       1       2       1       1
       2       1       1       2       1       1       2       1       1       2
       1       1       2       1       1       2       1       1       2       1
       1       2       1       1       2       1       1       2       1       1
       2       1       1       2       1       1       2       1       1       2
       1       1       2       1       1       2       1       1       2       1
       1       2       1       1       2       1       1       2       1       1
       2       1       1       2       1       1       2       1       1       2
       1       1       2       1       1       2       1       1       2       1
       1       2       1       1       2       1       1       2       1       1
       2       1       1       2       1       1       2       1       1       2
       1       1       2       1       1       2       1       1       2       1
       1       2       1       1       2       1       1       2       1       1
       2       1       1       2       1       1       2       1       1       2
       1       1       2       1       1       2       1       1       2       1
       1       2       1       1       2       1       1       2       1       1
       2       1       1       2       1       1       2       1       1       2
       1       1       2       1       1       2       1       1       2       1
       1       2       1       1       2       1       1       2       1       1
       2       1       1       2       1       1       2       1       1       2
       1       1       2       1       1       2       1       1       2       1
       1       2       1       1       2       1       1       2       1       1
       2       1       1       2       1       1       2       1       1       2
       1       1       2       1       1       2       1       1       2       1
       1       2       1       1
%FLAG NONBONDED_PARM_INDEX                                                      
%FORMAT(10I8)                                                                   
       1       2       4       7      11      16      22      29      37      46
       2       3       5       8      12      17      23      30      38      47
       4       5       6       9      13      18      24      31      39      48
       7       8       9      10      14      19      25      32      40      49
      11      12      13      14      15      20      26      33      41      50
      16      17      18      19      20      21      27      34      42      51
      22      23      24      25      26      27      28      35      43      52
      29      30      31      32      33      34      35      36      44      53
      37      38      39      40      41      42      43      44      45      54
      46      47      48      49      50      51      52      53      54      55
%FLAG RESIDUE_LABEL                                                             
%FORMAT(20a4)                                                                   
MEA Cl- WAT WAT WAT WAT WAT WAT WAT WAT WAT WAT WAT WAT WAT WAT WAT WAT WAT WAT 
WAT WAT WAT WAT WAT WAT WAT WAT WAT WAT WAT WAT WAT WAT WAT WAT WAT WAT WAT WAT 
WAT WAT WAT WAT WAT WAT WAT WAT WAT WAT WAT WAT WAT WAT WAT WAT WAT WAT WAT WAT 
WAT WAT WAT WAT WAT WAT WAT WAT WAT WAT WAT WAT WAT WAT WAT WAT WAT WAT WAT WAT 
WAT WAT WAT WAT WAT WAT WAT WAT WAT 
%FLAG RESIDUE_POINTER                                                           
%FORMAT(10I8)                                                                   
       1      13      14      17      20      23      26      29      32      35
      38      41      44      47      50      53      56      59      62      65
      68      71      74      77      80      83      86      89      92      95
      98     101     104     107     110     113     116     119     122     125
     128     131     134     137     140     143     146     149     152     155
     158     161     164     167     170     173     176     179     182     185
     188     191     194     197     200     203     206     209     212     215
     218     221     224     227     230     233     236     239     242     245
     248     251     254     257     260     263     266     269     272
%FLAG BOND_FORCE_CONSTANT                                                       
%FORMAT(5E16.8)                                                                 
  2.28890000E+02  2.83300000E+02  3.52860000E+02  2.85150000E+02  3.44220000E+02
  5.35510000E+02  3.73200000E+02  5.53000000E+02  5.53000000E+02
%FLAG BOND_EQUIL_VALUE                                                          
%FORMAT(5E16.8)                                                                 
  1.53540000E+00  1.51100000E+00  1.09110000E+00  1.42420000E+00  1.09690000E+00
  9.72500000E-01  1.03000000E+00  9.57200000E-01  1.51360000E+00
%FLAG ANGLE_FORCE_CONSTANT                                                      
%FORMAT(5E16.8)                                                                 
  7.67900000E+01  4.32800000E+01  4.59000000E+01  6.42000000E+01  4.31700000E+01
  6.51300000E+01  5.62900000E+01  4.86000000E+01  3.56300000E+01  3.56400000E+01
  4.06000000E+01
%FLAG ANGLE_EQUIL_VALUE                                                         
%FORMAT(5E16.8)                                                                 
  1.91392888E+00  1.91270715E+00  1.92178286E+00  1.99334139E+00  1.92474992E+00
  1.87430989E+00  1.92649525E+00  1.88513093E+00  1.91619781E+00  1.89455572E+00
  1.89019239E+00
%FLAG DIHEDRAL_FORCE_CONSTANT                                                   
%FORMAT(5E16.8)                                                                 
  6.00000000E-02  1.55555556E-01  1.30000000E+00  1.44000000E-01  1.23000000E-01
%FLAG DIHEDRAL_PERIODICITY                                                      
%FORMAT(5E16.8)                                                                 
  3.00000000E+00  3.00000000E+00  2.00000000E+00  3.00000000E+00  3.00000000E+00
%FLAG DIHEDRAL_PHASE                                                            
%FORMAT(5E16.8)                                                                 
  0.00000000E+00  0.00000000E+00  0.00000000E+00  0.00000000E+00  0.00000000E+00
%FLAG SCEE_SCALE_FACTOR                                                         
%FORMAT(5E16.8)                                                                 
  1.20000000E+00  1.20000000E+00  1.20000000E+00  1.20000000E+00  1.20000000E+00
%FLAG SCNB_SCALE_FACTOR                                                         
%FORMAT(5E16.8)                                                                 
  2.00000000E+00  2.00000000E+00  2.00000000E+00  2.00000000E+00  2.00000000E+00
%FLAG SOLTY                                                                     
%FORMAT(5E16.8)                                                                 
  0.00000000E+00  0.00000000E+00  0.00000000E+00  0.00000000E+00  0.00000000E+00
  0.00000000E+00  0.00000000E+00  0.00000000E+00  0.00000000E+00  0.00000000E+00
%FLAG LENNARD_JONES_ACOEF                                                       
%FORMAT(5E16.8)                                                                 
  1.02073671E+06  7.18991463E+05  5.03152404E+05  9.84684600E+05  6.89296946E+05
  9.44293233E+05  2.19657590E+04  1.42796035E+04  1.96306243E+04  1.70079100E+02
  6.97998263E+04  4.69084694E+04  6.43853349E+04  8.33358592E+02  3.39005767E+03
  3.03553352E+02  1.74176419E+02  2.40872585E+02  4.00077273E-01  4.36660257E+00
  1.10360882E-05  2.23577481E+03  1.36475542E+03  1.88178855E+03  7.30589786E+00
  5.24570081E+01  2.61760843E-03  1.34728399E-01  3.44293480E+06  2.51985667E+06
  3.44482863E+06  1.17510546E+05  3.09264248E+05  3.20091894E+03  1.69378390E+04
  9.24719470E+06  7.77325489E+05  5.41786538E+05  7.42364908E+05  1.46882189E+04
  4.92592636E+04  1.65622133E+02  1.34949100E+03  2.78932950E+06  5.81935564E+05
  0.00000000E+00  0.00000000E+00  0.00000000E+00  0.00000000E+00  0.00000000E+00
  0.00000000E+00  0.00000000E+00  0.00000000E+00  0.00000000E+00  0.00000000E+00
%FLAG LENNARD_JONES_BCOEF                                                       
%FORMAT(5E16.8)                                                                 
  6.63431737E+02  5.36620538E+02  4.32634597E+02  7.30206155E+02  5.88797748E+02
  8.01323529E+02  6.45020662E+01  5.01215671E+01  6.83321547E+01  3.76172582E+00
  1.14981426E+02  9.08431526E+01  1.23751804E+02  8.32679019E+00  1.67944276E+01
  5.22789272E+00  3.81654050E+00  5.21867651E+00  1.25788875E-01  4.15568027E-01
  4.55498033E-04  1.71355763E+01  1.29026271E+01  1.76168249E+01  6.49206153E-01
  1.73959275E+00  8.47240681E-03  7.34107347E-02  9.23600443E+02  7.61506649E+02
  1.03528777E+03  1.13088723E+02  1.83461836E+02  1.28684680E+01  3.57514815E+01
  1.14737423E+03  6.30880403E+02  5.07604817E+02  6.90894667E+02  5.74766298E+01
  1.05256926E+02  4.20798850E+00  1.45069425E+01  9.05890802E+02  5.94825035E+02
  0.00000000E+00  0.00000000E+00  0.00000000E+00  0.00000000E+00  0.00000000E+00
  0.00000000E+00  0.00000000E+00  0.00000000E+00  0.00000000E+00  0.00000000E+00
%FLAG BONDS_INC_HYDROGEN                                                        
%FORMAT(10I8)                                                                   
       0      12       3       0      15       3       3      18       5       3
      21       5       6      24       6       9      27       7       9      30
       7       9      33       7      42      39       8      45      39       8
      45      42       9      51      48       8      54      48       8      54
      51       9      60      57       8      63      57       8      63      60
       9      69      66       8      72      66       8      72      69       9
      78      75       8      81      75       8      81      78       9      87
      84       8      90      84       8      90      87       9      96      93
       8      99      93       8      99      96       9     105     102       8
     108     102       8     108     105       9     114     111       8     117
     111       8     117     114       9     123     120       8     126     120
       8     126     123       9     132     129       8     135     129       8
     135     132       9     141     138       8     144     138       8     144
     141       9     150     147       8     153     147       8     153     150
       9     159     156       8     162     156       8     162     159       9
     168     165       8     171     165       8     171     168       9     177
     174       8     180     174       8     180     177       9     186     183
       8     189     183       8     189     186       9     195     192       8
     198     192       8     198     195       9     204     201       8     207
     201       8     207     204       9     213     210       8     216     210
       8     216     213       9     222     219       8     225     219       8
     225     222       9     231     228       8     234     228       8     234
     231       9     240     237       8     243     237       8     243     240
       9     249     246       8     252     246       8     252     249       9
     258     255       8     261     255       8     261     258       9     267
     264       8     270     264       8     270     267       9     276     273
       8     279     273       8     279     276       9     285     282       8
     288     282       8     288     285       9     294     291       8     297
     291       8     297     294       9     303     300       8     306     300
       8     306     303       9     312     309       8     315     309       8
     315     312       9     321     318       8     324     318       8     324
     321       9     330     327       8     333     327       8     333     330
       9     339     336       8     342     336       8     342     339       9
     348     345       8     351     345       8     351     348       9     357
     354       8     360     354       8     360     357       9     366     363
       8     369     363       8     369     366       9     375     372       8
     378     372       8     378     375       9     384     381       8     387
     381       8     387     384       9     393     390       8     396     390
       8     396     393       9     402     399       8     405     399       8
     405     402       9     411     408       8     414     408       8     414
     411       9     420     417       8     423     417       8     423     420
       9     429     426       8     432     426       8     432     429       9
     438     435       8     441     435       8     441     438       9     447
     444       8     450     444       8     450     447       9     456     453
       8     459     453       8     459     456       9     465     462       8
     468     462       8     468     465       9     474     471       8     477
     471       8     477     474       9     483     480       8     486     480
       8     486     483       9     492     489       8     495     489       8
     495     492       9     501     498       8     504     498       8     504
     501       9     510     507       8     513     507       8     513     510
       9     519     516       8     522     516       8     522     519       9
     528     525       8     531     525       8     531     528       9     537
     534       8     540     534       8     540     537       9     546     543
       8     549     543       8     549     546       9     555     552       8
     558     552       8     558     555       9     564     561       8     567
     561       8     567     564       9     573     570       8     576     570
       8     576     573       9     582     579       8     585     579       8
     585     582       9     591     588       8     594     588       8     594
     591       9     600     597       8     603     597       8     603     600
       9     609     606       8     612     606       8     612     609       9
     618     615       8     621     615       8     621     618       9     627
     624       8     630     624       8     630     627       9     636     633
       8     639     633       8     639     636       9     645     642       8
     648     642       8     648     645       9     654     651       8     657
     651       8     657     654       9     663     660       8     666     660
       8     666     663       9     672     669       8     675     669       8
     675     672       9     681     678       8     684     678       8     684
     681       9     690     687       8     693     687       8     693     690
       9     699     696       8     702     696       8     702     699       9
     708     705       8     711     705       8     711     708       9     717
     714       8     720     714       8     720     717       9     726     723
       8     729     723       8     729     726       9     735     732       8
     738     732       8     738     735       9     744     741       8     747
     741       8     747     744       9     753     750       8     756     750
       8     756     753       9     762     759       8     765     759       8
     765     762       9     771     768       8     774     768       8     774
     771       9     780     777       8     783     777       8     783     780
       9     789     786       8     792     786       8     792     789       9
     798     795       8     801     795       8     801     798       9     807
     804       8     810     804       8     810     807       9     816     813
       8     819     813       8     819     816       9
%FLAG BONDS_WITHOUT_HYDROGEN                                                    
%FORMAT(10I8)                                                                   
       0       3       1       0       9       2       3       6       4
%FLAG ANGLES_INC_HYDROGEN                                                       
%FORMAT(10I8)                                                                   
       0       3      18       2       0       3      21       2       0       9
      27       3       0       9      30       3       0       9      33       3
       3       0      12       5       3       0      15       5       3       6
      24       6       6       3      18       7       6       3      21       7
       9       0      12       8       9       0      15       8      12       0
      15       9      18       3      21      10      27       9      30      11
      27       9      33      11      30       9      33      11
%FLAG ANGLES_WITHOUT_HYDROGEN                                                   
%FORMAT(10I8)                                                                   
       0       3       6       1       3       0       9       4
%FLAG DIHEDRALS_INC_HYDROGEN                                                    
%FORMAT(10I8)                                                                   
       0       3       6      24       1       3       0       9      27       2
       3       0       9      30       2       3       0       9      33       2
      12       0       3       6       2      15       0       3       6       2
       9       0       3      18       2       9       0       3      21       2
      12       0       3      18       2      12       0       3      21       2
      12       0       9      27       2      12       0       9      30       2
      12       0       9      33       2      15       0       3      18       2
      15       0       3      21       2      15       0       9      27       2
      15       0       9      30       2      15       0       9      33       2
      18       3       6      24       5      21       3       6      24       5
%FLAG DIHEDRALS_WITHOUT_HYDROGEN                                                
%FORMAT(10I8)                                                                   
       9       0       3       6       3       9       0      -3       6       4
%FLAG EXCLUDED_ATOMS_LIST                                                       
%FORMAT(10I8)                                                                   
       2       3       4       5       6       7       8       9      10      11
      12       3       4       5       6       7       8       9      10      11
      12       4       5       6       7       8       9       5       6       7
       8      10      11      12       6       7       8      10      11      12
       7       8      10      11      12       8       9       9       0      11
      12      12       0       0      15      16      16       0      18      19
      19       0      21      22      22       0      24      25      25       0
      27      28      28       0      30      31      31       0      33      34
      34       0      36      37      37       0      39      40      40       0
      42      43      43       0      45      46      46       0      48      49
      49       0      51      52      52       0      54      55      55       0
      57      58      58       0      60      61      61       0      63      64
      64       0      66      67      67       0      69      70      70       0
      72      73      73       0      75      76      76       0      78      79
      79       0      81      82      82       0      84      85      85       0
      87      88      88       0      90      91      91       0      93      94
      94       0      96      97      97       0      99     100     100       0
     102     103     103       0     105     106     106       0     108     109
     109       0     111     112     112       0     114     115     115       0
     117     118     118       0     120     121     121       0     123     124
     124       0     126     127     127       0     129     130     130       0
     132     133     133       0     135     136     136       0     138     139
     139       0     141     142     142       0     144     145     145       0
     147     148     148       0     150     151     151       0     153     154
     154       0     156     157     157       0     159     160     160       0
     162     163     163       0     165     166     166       0     168     169
     169       0     171     172     172       0     174     175     175       0
     177     178     178       0     180     181     181       0     183     184
     184       0     186     187     187       0     189     190     190       0
     192     193     193       0     195     196     196       0     198     199
     199       0     201     202     202       0     204     205     205       0
     207     208     208       0     210     211     211       0     213     214
     214       0     216     217     217       0     219     220     220       0
     222     223     223       0     225     226     226       0     228     229
     229       0     231     232     232       0     234     235     235       0
     237     238     238       0     240     241     241       0     243     244
     244       0     246     247     247       0     249     250     250       0
     252     253     253       0     255     256     256       0     258     259
     259       0     261     262     262       0     264     265     265       0
     267     268     268       0     270     271     271       0     273     274
     274       0
%FLAG HBOND_ACOEF                                                               
%FORMAT(5E16.8)                                                                 

%FLAG HBOND_BCOEF                                                               
%FORMAT(5E16.8)                                                                 

%FLAG HBCUT                                                                     
%FORMAT(5E16.8)                                                                 

%FLAG AMBER_ATOM_TYPE                                                           
%FORMAT(20a4)                                                                   
c3  c3  oh  nz  hx  hx  h1  h1  ho  hn  hn  hn  Cl- OW  HW  HW  OW  HW  HW  OW  
HW  HW  OW  HW  HW  OW  HW  HW  OW  HW  HW  OW  HW  HW  OW  HW  HW  OW  HW  HW  
OW  HW  HW  OW  HW  HW  OW  HW  HW  OW  HW  HW  OW  HW  HW  OW  HW  HW  OW  HW  
HW  OW  HW  HW  OW  HW  HW  OW  HW  HW  OW  HW  HW  OW  HW  HW  OW  HW  HW  OW  
HW  HW  OW  HW  HW  OW  HW  HW  OW  HW  HW  OW  HW  HW  OW  HW  HW  OW  HW  HW  
OW  HW  HW  OW  HW  HW  OW  HW  HW  OW  HW  HW  OW  HW  HW  OW  HW  HW  OW  HW  
HW  OW  HW  HW  OW  HW  HW  OW  HW  HW  OW  HW  HW  OW  HW  HW  OW  HW  HW  OW  
HW  HW  OW  HW  HW  OW  HW  HW  OW  HW  HW  OW  HW  HW  OW  HW  HW  OW  HW  HW  
OW  HW  HW  OW  HW  HW  OW  HW  HW  OW  HW  HW  OW  HW  HW  OW  HW  HW  OW  HW  
HW  OW  HW  HW  OW  HW  HW  OW  HW  HW  OW  HW  HW  OW  HW  HW  OW  HW  HW  OW  
HW  HW  OW  HW  HW  OW  HW  HW  OW  HW  HW  OW  HW  HW  OW  HW  HW  OW  HW  HW  
OW  HW  HW  OW  HW  HW  OW  HW  HW  OW  HW  HW  OW  HW  HW  OW  HW  HW  OW  HW  
HW  OW  HW  HW  OW  HW  HW  OW  HW  HW  OW  HW  HW  OW  HW  HW  OW  HW  HW  OW  
HW  HW  OW  HW  HW  OW  HW  HW  OW  HW  HW  OW  HW  HW  
%FLAG TREE_CHAIN_CLASSIFICATION                                                 
%FORMAT(20a4)                                                                   
BLA BLA BLA BLA BLA BLA BLA BLA BLA BLA BLA BLA M   BLA BLA BLA BLA BLA BLA BLA 
BLA BLA BLA BLA BLA BLA BLA BLA BLA BLA BLA BLA BLA BLA BLA BLA BLA BLA BLA BLA 
BLA BLA BLA BLA BLA BLA BLA BLA BLA BLA BLA BLA BLA BLA BLA BLA BLA BLA BLA BLA 
BLA BLA BLA BLA BLA BLA BLA BLA BLA BLA BLA BLA BLA BLA BLA BLA BLA BLA BLA BLA 
BLA BLA BLA BLA BLA BLA BLA BLA BLA BLA BLA BLA BLA BLA BLA BLA BLA BLA BLA BLA 
BLA BLA BLA BLA BLA BLA BLA BLA BLA BLA BLA BLA BLA BLA BLA BLA BLA BLA BLA BLA 
BLA BLA BLA BLA BLA BLA BLA BLA BLA BLA BLA BLA BLA BLA BLA BLA BLA BLA BLA BLA 
BLA BLA BLA BLA BLA BLA BLA BLA BLA BLA BLA BLA BLA BLA BLA BLA BLA BLA BLA BLA 
BLA BLA BLA BLA BLA BLA BLA BLA BLA BLA BLA BLA BLA BLA BLA BLA BLA BLA BLA BLA 
BLA BLA BLA BLA BLA BLA BLA BLA BLA BLA BLA BLA BLA BLA BLA BLA BLA BLA BLA BLA 
BLA BLA BLA BLA BLA BLA BLA BLA BLA BLA BLA BLA BLA BLA BLA BLA BLA BLA BLA BLA 
BLA BLA BLA BLA BLA BLA BLA BLA BLA BLA BLA BLA BLA BLA BLA BLA BLA BLA BLA BLA 
BLA BLA BLA BLA BLA BLA BLA BLA BLA BLA BLA BLA BLA BLA BLA BLA BLA BLA BLA BLA 
BLA BLA BLA BLA BLA BLA BLA BLA BLA BLA BLA BLA BLA BLA 
%FLAG JOIN_ARRAY                                                                
%FORMAT(10I8)                                                                   
       0       0       0       0       0       0       0       0       0       0
       0       0       0       0       0       0       0       0       0       0
       0       0       0       0       0       0       0       0       0       0
       0       0       0       0       0       0       0       0       0       0
       0       0       0       0       0       0       0       0       0       0
       0       0       0       0       0       0       0       0       0       0
       0       0       0       0       0       0       0       0       0       0
       0       0       0       0       0       0       0       0       0       0
       0       0       0       0       0       0       0       0       0       0
       0       0       0       0       0       0       0       0       0       0
       0       0       0       0       0       0       0       0       0       0
       0       0       0       0       0       0       0       0       0       0
       0       0       0       0       0       0       0       0       0       0
       0       0       0       0       0       0       0       0       0       0
       0       0       0       0       0       0       0       0       0       0
       0       0       0       0       0       0       0       0       0       0
       0       0       0       0       0       0       0       0       0       0
       0       0       0       0       0       0       0       0       0       0
       0       0       0       0       0       0       0       0       0       0
       0       0       0       0       0       0       0       0       0       0
       0       0       0       0       0       0       0       0       0       0
       0       0       0       0       0       0       0       0       0       0
       0       0       0       0       0       0       0       0       0       0
       0       0       0       0       0       0       0       0       0       0
       0       0       0       0       0       0       0       0       0       0
       0       0       0       0       0       0       0       0       0       0
       0       0       0       0       0       0       0       0       0       0
       0       0       0       0
%FLAG IROTAT                                                                    
%FORMAT(10I8)                                                                   
       0       0       0       0       0       0       0       0       0       0
       0       0       0       0       0       0       0       0       0       0
       0       0       0       0       0       0       0       0       0       0
       0       0       0       0       0       0       0       0       0       0
       0       0       0       0       0       0       0       0       0       0
       0       0       0       0       0       0       0       0       0       0
       0       0       0       0       0       0       0       0       0       0
       0       0       0       0       0       0       0       0       0       0
       0       0       0       0       0       0       0       0       0       0
       0       0       0       0       0       0       0       0       0       0
       0       0       0       0       0       0       0       0       0       0
       0       0       0       0       0       0       0       0       0       0
       0       0       0       0       0       0       0       0       0       0
       0       0       0       0       0       0       0       0       0       0
       0       0       0       0       0       0       0       0       0       0
       0       0       0       0       0       0       0       0       0       0
       0       0       0       0       0       0       0       0       0       0
       0       0       0       0       0       0       0       0       0       0
       0       0       0       0       0       0       0       0       0       0
       0       0       0       0       0       0       0       0       0       0
       0       0       0       0       0       0       0       0       0       0
       0       0       0       0       0       0       0       0       0       0
       0       0       0       0       0       0       0       0       0       0
       0       0       0       0       0       0       0       0       0       0
       0       0       0       0       0       0       0       0       0       0
       0       0       0       0       0       0       0       0       0       0
       0       0       0       0       0       0       0       0       0       0
       0       0       0       0
%FLAG SOLVENT_POINTERS                                                          
%FORMAT(3I8)                                                                    
       2      89       3
%FLAG ATOMS_PER_MOLECULE                                                        
%FORMAT(10I8)                                                                   
      12       1       3       3       3       3       3       3       3       3
       3       3       3       3       3       3       3       3       3       3
       3       3       3       3       3       3       3       3       3       3
       3       3       3       3       3       3       3       3       3       3
       3       3       3       3       3       3       3       3       3       3
       3       3       3       3       3       3       3       3       3       3
       3       3       3       3       3       3       3       3       3       3
       3       3       3       3       3       3       3       3       3       3
       3       3       3       3       3       3       3       3       3
%FLAG BOX_DIMENSIONS                                                            
%FORMAT(5E16.8)                                                                 
  9.00000000E+01  2.06420520E+01  1.77690090E+01  1.71223620E+01
%FLAG RADIUS_SET                                                                
%FORMAT(1a80)                                                                   
modified Bondi radii (mbondi)                                                   
%FLAG RADII                                                                     
%FORMAT(5E16.8)                                                                 
  1.70000000E+00  1.70000000E+00  1.50000000E+00  1.55000000E+00  1.30000000E+00
  1.30000000E+00  1.30000000E+00  1.30000000E+00  8.00000000E-01  1.30000000E+00
  1.30000000E+00  1.30000000E+00  1.70000000E+00  1.50000000E+00  8.00000000E-01
  8.00000000E-01  1.50000000E+00  8.00000000E-01  8.00000000E-01  1.50000000E+00
  8.00000000E-01  8.00000000E-01  1.50000000E+00  8.00000000E-01  8.00000000E-01
  1.50000000E+00  8.00000000E-01  8.00000000E-01  1.50000000E+00  8.00000000E-01
  8.00000000E-01  1.50000000E+00  8.00000000E-01  8.00000000E-01  1.50000000E+00
  8.00000000E-01  8.00000000E-01  1.50000000E+00  8.00000000E-01  8.00000000E-01
  1.50000000E+00  8.00000000E-01  8.00000000E-01  1.50000000E+00  8.00000000E-01
  8.00000000E-01  1.50000000E+00  8.00000000E-01  8.00000000E-01  1.50000000E+00
  8.00000000E-01  8.00000000E-01  1.50000000E+00  8.00000000E-01  8.00000000E-01
  1.50000000E+00  8.00000000E-01  8.00000000E-01  1.50000000E+00  8.00000000E-01
  8.00000000E-01  1.50000000E+00  8.00000000E-01  8.00000000E-01  1.50000000E+00
  8.00000000E-01  8.00000000E-01  1.50000000E+00  8.00000000E-01  8.00000000E-01
  1.50000000E+00  8.00000000E-01  8.00000000E-01  1.50000000E+00  8.00000000E-01
  8.00000000E-01  1.50000000E+00  8.00000000E-01  8.00000000E-01  1.50000000E+00
  8.00000000E-01  8.00000000E-01  1.50000000E+00  8.00000000E-01  8.00000000E-01
  1.50000000E+00  8.00000000E-01  8.00000000E-01  1.50000000E+00  8.00000000E-01
  8.00000000E-01  1.50000000E+00  8.00000000E-01  8.00000000E-01  1.50000000E+00
  8.00000000E-01  8.00000000E-01  1.50000000E+00  8.00000000E-01  8.00000000E-01
  1.50000000E+00  8.00000000E-01  8.00000000E-01  1.50000000E+00  8.00000000E-01
  8.00000000E-01  1.50000000E+00  8.00000000E-01  8.00000000E-01  1.50000000E+00
  8.00000000E-01  8.00000000E-01  1.50000000E+00  8.00000000E-01  8.00000000E-01
  1.50000000E+00  8.00000000E-01  8.00000000E-01  1.50000000E+00  8.00000000E-01
  8.00000000E-01  1.50000000E+00  8.00000000E-01  8.00000000E-01  1.50000000E+00
  8.00000000E-01  8.00000000E-01  1.50000000E+00  8.00000000E-01  8.00000000E-01
  1.50000000E+00  8.00000000E-01  8.00000000E-01  1.50000000E+00  8.00000000E-01
  8.00000000E-01  1.50000000E+00  8.00000000E-01  8.00000000E-01  1.50000000E+00
  8.00000000E-01  8.00000000E-01  1.50000000E+00  8.00000000E-01  8.00000000E-01
  1.50000000E+00  8.00000000E-01  8.00000000E-01  1.50000000E+00  8.00000000E-01
  8.00000000E-01  1.50000000E+00  8.00000000E-01  8.00000000E-01  1.50000000E+00
  8.00000000E-01  8.00000000E-01  1.50000000E+00  8.00000000E-01  8.00000000E-01
  1.50000000E+00  8.00000000E-01  8.00000000E-01  1.50000000E+00  8.00000000E-01
  8.00000000E-01  1.50000000E+00  8.00000000E-01  8.00000000E-01  1.50000000E+00
  8.00000000E-01  8.00000000E-01  1.50000000E+00  8.00000000E-01  8.00000000E-01
  1.50000000E+00  8.00000000E-01  8.00000000E-01  1.50000000E+00  8.00000000E-01
  8.00000000E-01  1.50000000E+00  8.00000000E-01  8.00000000E-01  1.50000000E+00
  8.00000000E-01  8.00000000E-01  1.50000000E+00  8.00000000E-01  8.00000000E-01
  1.50000000E+00  8.00000000E-01  8.00000000E-01  1.50000000E+00  8.00000000E-01
  8.00000000E-01  1.50000000E+00  8.00000000E-01  8.00000000E-01  1.50000000E+00
  8.00000000E-01  8.00000000E-01  1.50000000E+00  8.00000000E-01  8.00000000E-01
  1.50000000E+00  8.00000000E-01  8.00000000E-01  1.50000000E+00  8.00000000E-01
  8.00000000E-01  1.50000000E+00  8.00000000E-01  8.00000000E-01  1.50000000E+00
  8.00000000E-01  8.00000000E-01  1.50000000E+00  8.00000000E-01  8.00000000E-01
  1.50000000E+00  8.00000000E-01  8.00000000E-01  1.50000000E+00  8.00000000E-01
  8.00000000E-01  1.50000000E+00  8.00000000E-01  8.00000000E-01  1.50000000E+00
  8.00000000E-01  8.00000000E-01  1.50000000E+00  8.00000000E-01  8.00000000E-01
  1.50000000E+00  8.00000000E-01  8.00000000E-01  1.50000000E+00  8.00000000E-01
  8.00000000E-01  1.50000000E+00  8.00000000E-01  8.00000000E-01  1.50000000E+00
  8.00000000E-01  8.00000000E-01  1.50000000E+00  8.00000000E-01  8.00000000E-01
  1.50000000E+00  8.00000000E-01  8.00000000E-01  1.50000000E+00  8.00000000E-01
  8.00000000E-01  1.50000000E+00  8.00000000E-01  8.00000000E-01  1.50000000E+00
  8.00000000E-01  8.00000000E-01  1.50000000E+00  8.00000000E-01  8.00000000E-01
  1.50000000E+00  8.00000000E-01  8.00000000E-01  1.50000000E+00  8.00000000E-01
  8.00000000E-01  1.50000000E+00  8.00000000E-01  8.00000000E-01
%FLAG SCREEN                                                                    
%FORMAT(5E16.8)                                                                 
  7.20000000E-01  7.20000000E-01  8.50000000E-01  7.90000000E-01  8.50000000E-01
  8.50000000E-01  8.50000000E-01  8.50000000E-01  8.50000000E-01  8.50000000E-01
  8.50000000E-01  8.50000000E-01  8.00000000E-01  8.50000000E-01  8.50000000E-01
  8.50000000E-01  8.50000000E-01  8.50000000E-01  8.50000000E-01  8.50000000E-01
  8.50000000E-01  8.50000000E-01  8.50000000E-01  8.50000000E-01  8.50000000E-01
  8.50000000E-01  8.50000000E-01  8.50000000E-01  8.50000000E-01  8.50000000E-01
  8.50000000E-01  8.50000000E-01  8.50000000E-01  8.50000000E-01  8.50000000E-01
  8.50000000E-01  8.50000000E-01  8.50000000E-01  8.50000000E-01  8.50000000E-01
  8.50000000E-01  8.50000000E-01  8.50000000E-01  8.50000000E-01  8.50000000E-01
  8.50000000E-01  8.50000000E-01  8.50000000E-01  8.50000000E-01  8.50000000E-01
  8.50000000E-01  8.50000000E-01  8.50000000E-01  8.50000000E-01  8.50000000E-01
  8.50000000E-01  8.50000000E-01  8.50000000E-01  8.50000000E-01  8.50000000E-01
  8.50000000E-01  8.50000000E-01  8.50000000E-01  8.50000000E-01  8.50000000E-01
  8.50000000E-01  8.50000000E-01  8.50000000E-01  8.50000000E-01  8.50000000E-01
  8.50000000E-01  8.50000000E-01  8.50000000E-01  8.50000000E-01  8.50000000E-01
  8.50000000E-01  8.50000000E-01  8.50000000E-01  8.50000000E-01  8.50000000E-01
  8.50000000E-01  8.50000000E-01  8.50000000E-01  8.50000000E-01  8.50000000E-01
  8.50000000E-01  8.50000000E-01  8.50000000E-01  8.50000000E-01  8.50000000E-01
  8.50000000E-01  8.50000000E-01  8.50000000E-01  8.50000000E-01  8.50000000E-01
  8.50000000E-01  8.50000000E-01  8.50000000E-01  8.50000000E-01  8.50000000E-01
  8.50000000E-01  8.50000000E-01  8.50000000E-01  8.50000000E-01  8.50000000E-01
  8.50000000E-01  8.50000000E-01  8.50000000E-01  8.50000000E-01  8.50000000E-01
  8.50000000E-01  8.50000000E-01  8.50000000E-01  8.50000000E-01  8.50000000E-01
  8.50000000E-01  8.50000000E-01  8.50000000E-01  8.50000000E-01  8.50000000E-01
  8.50000000E-01  8.50000000E-01  8.50000000E-01  8.50000000E-01  8.50000000E-01
  8.50000000E-01  8.50000000E-01  8.50000000E-01  8.50000000E-01  8.50000000E-01
  8.50000000E-01  8.50000000E-01  8.50000000E-01  8.50000000E-01  8.50000000E-01
  8.50000000E-01  8.50000000E-01  8.50000000E-01  8.50000000E-01  8.50000000E-01
  8.50000000E-01  8.50000000E-01  8.50000000E-01  8.50000000E-01  8.50000000E-01
  8.50000000E-01  8.50000000E-01  8.50000000E-01  8.50000000E-01  8.50000000E-01
  8.50000000E-01  8.50000000E-01  8.50000000E-01  8.50000000E-01  8.50000000E-01
  8.50000000E-01  8.50000000E-01  8.50000000E-01  8.50000000E-01  8.50000000E-01
  8.50000000E-01  8.50000000E-01  8.50000000E-01  8.50000000E-01  8.50000000E-01
  8.50000000E-01  8.50000000E-01  8.50000000E-01  8.50000000E-01  8.50000000E-01
  8.50000000E-01  8.50000000E-01  8.50000000E-01  8.50000000E-01  8.50000000E-01
  8.50000000E-01  8.50000000E-01  8.50000000E-01  8.50000000E-01  8.50000000E-01
  8.50000000E-01  8.50000000E-01  8.50000000E-01  8.50000000E-01  8.50000000E-01
  8.50000000E-01  8.50000000E-01  8.50000000E-01  8.50000000E-01  8.50000000E-01
  8.50000000E-01  8.50000000E-01  8.50000000E-01  8.50000000E-01  8.50000000E-01
  8.50000000E-01  8.50000000E-01  8.50000000E-01  8.50000000E-01  8.50000000E-01
  8.50000000E-01  8.50000000E-01  8.50000000E-01  8.50000000E-01  8.50000000E-01
  8.50000000E-01  8.50000000E-01  8.50000000E-01  8.50000000E-01  8.50000000E-01
  8.50000000E-01  8.50000000E-01  8.50000000E-01  8.50000000E-01  8.50000000E-01
  8.50000000E-01  8.50000000E-01  8.50000000E-01  8.50000000E-01  8.50000000E-01
  8.50000000E-01  8.50000000E-01  8.50000000E-01  8.50000000E-01  8.50000000E-01
  8.50000000E-01  8.50000000E-01  8.50000000E-01  8.50000000E-01  8.50000000E-01
  8.50000000E-01  8.50000000E-01  8.50000000E-01  8.50000000E-01  8.50000000E-01
  8.50000000E-01  8.50000000E-01  8.50000000E-01  8.50000000E-01  8.50000000E-01
  8.50000000E-01  8.50000000E-01  8.50000000E-01  8.50000000E-01  8.50000000E-01
  8.50000000E-01  8.50000000E-01  8.50000000E-01  8.50000000E-01  8.50000000E-01
  8.50000000E-01  8.50000000E-01  8.50000000E-01  8.50000000E-01  8.50000000E-01
  8.50000000E-01  8.50000000E-01  8.50000000E-01  8.50000000E-01  8.50000000E-01
  8.50000000E-01  8.50000000E-01  8.50000000E-01  8.50000000E-01  8.50000000E-01
  8.50000000E-01  8.50000000E-01  8.50000000E-01  8.50000000E-01  8.50000000E-01
  8.50000000E-01  8.50000000E-01  8.50000000E-01  8.50000000E-01
%FLAG IPOL                                                                      
%FORMAT(1I8)                                                                    
       0
