MEA
   160
   7.7105132   7.0298888   7.1611264   9.2305132   7.0298888   7.1611264
  10.6605132   7.0298888   7.1611264   7.0605132   8.2798888   7.1611264
   7.1605132   6.4898888   8.0611264   7.1605132   6.4898888   6.2611264
   9.2305132   7.5698888   8.0611264   9.2305132   7.5698888   6.2611264
  11.0605132   7.8298888   7.1611264   6.1605132   8.2798888   7.1611264
   7.4605132   9.0798888   7.8111264   7.4605132   9.0798888   6.5111264
   9.1599630  11.2692100   7.4422280  13.7398070  12.9995100   6.2151250
  13.2779600  12.2282340   6.5438420  14.5523620  13.0261170   6.7203700
   3.7157730  12.9394810   8.5085900   4.0185770  12.0492550   8.3296120
   4.4601320  13.4965030   8.2808150   2.1448420   3.8656610   2.0970270
   1.2565120   4.2072580   1.9950150   2.4289610   3.6656930   1.2051100
   4.3209810   2.4488110   3.1308650   4.4276560   3.3491840   3.4377410
   3.4102170   2.4006080   2.8403300   1.9692970   4.3707120   8.3761240
   2.6503080   4.6345490   8.9948640   1.6541020   3.5307990   8.7099250
  10.8324730  10.1692350   3.2287150  10.2142000  10.6341800   2.6649870
  11.3447980  10.8619830   3.6456660  14.2090400   3.5113300   7.3747090
  13.5045970   3.7998190   7.9550200  14.5702560   4.3213410   7.0146650
   4.1268970   1.7683000   9.7367700   4.4685780   2.6125050   9.4421570
   3.1884780   1.9166740   9.8533040   4.9075590  11.6649020  11.7219930
   5.5249590  12.3400100  11.4404380   4.0468710  12.0737000  11.6307430
  15.8253180  13.1288430   9.6374570  15.1416700  13.7987540   9.6291240
  16.3647470  13.3269080   8.8719430  14.6557340  11.6948780   3.4409920
  14.5453670  10.7523110   3.5659340  14.6525590  12.0564420   4.3272680
  12.7597360   9.8762400   9.6802360  13.1766150   9.6622510   8.8455820
  13.4837180  10.1335190  10.2510980  10.1977620   7.3214100   2.7972410
   9.2706900   7.2551480   3.0260880  10.3502440   8.2594230   2.6827650
  14.2274910   8.8834400   3.3007660  13.6087330   8.5453950   2.6533960
  14.2099360   8.2394160   4.0086850  13.6701470   5.0618940  10.7173470
  13.2572650   5.8872650  10.9713460  12.9377420   4.4763980  10.5249830
   4.5162880   4.6222050   9.3591180   5.0677470   4.7317390   8.5844430
   5.0306390   4.9959650  10.0746410   4.1905610   8.1441410  12.9696520
   4.0513380   9.0164210  13.3383920   3.3086970   7.8014220  12.8244460
  10.5134990  13.0617280   4.2761650  10.9530900  13.8041610   3.8617040
  10.4521880  13.3043850   5.2000610   2.5038890   6.7423820   3.0798790
   2.3836490   7.4685910   2.4680060   2.1939780   5.9726730   2.6026700
   9.2572360   2.9527410  12.0657780   8.7951730   3.1610430  12.8777720
   8.8550470   2.1386760  11.7628450   4.7616770   5.2092460   4.1903710
   4.5357690   4.9929630   5.0950330   3.9809300   5.6420920   3.8449680
  11.9914530   5.2155830   2.7894360  11.3923420   5.9391630   2.6057980
  12.5394140   5.1532610   2.0070810  10.5979400   3.8519370   4.8197640
  10.9908970   4.1691570   4.0066330  10.9596250   2.9731250   4.9342160
   2.3326520   2.5191710  13.0097760   1.9389910   3.3666920  13.2170540
   1.6444920   1.8818080  13.2006400   7.6211930   3.1179320   7.3200910
   7.6247990   2.6769270   6.4705450   8.5163050   3.4396650   7.4272730
   3.4714310   3.0005810   6.2795120   3.1314360   3.4781040   7.0362170
   2.7091630   2.5470930   5.9196220   5.7119270   6.2189740  11.3850530
   5.4076340   7.0981720  11.6100890   6.6665730   6.2789530  11.4207970
   4.2401060  10.4250730   1.9817380   3.4663320   9.8848350   1.8216100
   4.9695690   9.9057340   1.6435140  14.9989040   9.4216090   7.7743770
  15.7188160   9.9171380   7.3839880  14.7970860   8.7433980   7.1297640
   4.2838460  10.0931110   5.6196190   4.8017130   9.2899370   5.5653080
   3.8322480  10.0310250   6.4613020   1.7683000   7.0592480  12.5321890
   1.4097940   7.7246330  13.1195230   1.4737560   6.2276030  12.9034510
  16.4748890  13.3527800   2.4097310  15.8325050  12.6983420   2.6841030
  16.0879550  13.7582890   1.6337980  12.0535370  10.6813230   6.2569000
  12.4059190  10.0841360   5.5970370  11.1697700  10.3557460   6.4277250
   8.1398650  11.4410920   3.6639410   8.8269780  11.9880130   4.0447000
   7.3531070  11.9851650   3.6989020   7.4425860   8.4456950   3.2764770
   7.8988640   9.2562200   3.5024960   7.0914070   8.1280090   4.1083260
  11.0190550  11.9595640   9.2234520  11.6612780  11.2588800   9.3366690
  11.5439900  12.7394080   9.0431410  12.7928170  12.7590540  12.4270580
  13.1284410  13.3457230  13.1048500  11.8728510  12.6283250  12.6568370
  11.8370350   3.0408030  10.9595440  12.2051170   2.2203240  11.2875010
  10.9768550   3.1009920  11.3751090  15.2032380   1.9964970   1.7683000
  14.5745540   2.1010640   1.0541230  14.7084300   2.2161750   2.5576880
   7.1716410   4.2750920   3.1840880   6.4632560   4.7437260   3.6254490
   7.4560890   3.6172930   3.8186070   8.7972340   5.6947620  11.1833410
   9.2957590   6.1693440  11.8485260   8.9395290   4.7711140  11.3903440
  14.2961210   7.1548760   5.4723160  13.3551350   7.1698990   5.6470850
  14.6105280   6.3684720   5.9183460   8.1282590   9.2319980  11.5477860
   8.5470700  10.0752710  11.3754100   7.2091220   9.3692020  11.3184640
  12.8034390   7.5173350  11.5078210  12.2769610   8.0415970  10.9043350
  13.1465730   8.1500740  12.1387940   4.8341430  12.4307800   3.8857830
   4.5336970  12.3072770   4.7861740   4.7278920  11.5716390   3.4773560
  15.0483540  11.1938360  11.3490960  14.2343380  11.6235520  11.6116750
  15.4557740  11.8056770  10.7360010  15.7725250   4.6685880   2.4820310
  16.2684370   4.4356750   3.2669190  15.5741320   3.8297720   2.0657950
   2.4822420  12.6895500  11.0955680   1.7556480  12.0700790  11.0281630
   2.5431570  13.0836110  10.2253760   7.9294250   1.9525940   4.7986610
   7.1168760   1.5782830   4.4582490   8.4335890   1.1971020   5.1007800
  18.2431890  15.1210800  14.7780760  90.0000000  90.0000000  90.0000000
