MEA
   358
   9.3706702   8.9595218   9.2134254  10.8906702   8.9595218   9.2134254
  12.3206702   8.9595218   9.2134254   8.7206702  10.2095218   9.2134254
   8.8206702   8.4195218  10.1134254   8.8206702   8.4195218   8.3134254
  10.8906702   9.4995218  10.1134254  10.8906702   9.4995218   8.3134254
  12.7206702   9.7595218   9.2134254   7.8206702  10.2095218   9.2134254
   9.1206702  11.0095218   9.8634254   9.1206702  11.0095218   8.5634254
  10.8201200  13.1988430   9.4945270  15.3999640  14.9291430   8.2674240
  14.9381170  14.1578670   8.5961410  16.2125190  14.9557500   8.7726690
   5.3759300  14.8691140  10.5608890   5.6787340  13.9788880  10.3819110
   6.1202890  15.4261360  10.3331140   3.8049990   5.7952940   4.1493260
   2.9166690   6.1368910   4.0473140   4.0891180   5.5953260   3.2574090
   1.7683000   8.3958590  10.0332960   2.3399110   7.6280790  10.0336600
   1.7684540   8.6947350   9.1239570   3.0107870   3.8042950  11.8201890
   2.8310710   2.9068700  12.1004650   2.6087950   4.3514820  12.4948840
   5.9811380   4.3784440   5.1831640   6.0878130   5.2788170   5.4900400
   5.0703740   4.3302410   4.8926290  15.6330490   3.5009250   6.6542540
  16.4540110   3.0105820   6.6968020  15.6664570   4.0906910   7.4074380
   3.6294540   6.3003450  10.4284230   4.3104650   6.5641820  11.0471630
   3.3142590   5.4604320  10.7622240  12.4926300  12.0988680   5.2810140
  11.8743570  12.5638130   4.7172860  13.0049550  12.7916160   5.6979650
  15.8691970   5.4409630   9.4270080  15.1647540   5.7294520  10.0073190
  16.2304130   6.2509740   9.0669640   5.7870540   3.6979330  11.7890690
   6.1287350   4.5421380  11.4944560   4.8486350   3.8463070  11.9056030
   6.5677160  13.5945350  13.7742920   7.1851160  14.2696430  13.4927370
   5.7070280  14.0033330  13.6830420   1.8609500  12.7845210   2.6549770
   1.4837480  13.2732310   1.9234670   2.1182570  13.4570490   3.2856300
  17.4854750  15.0584760  11.6897560  16.8018270  15.7283870  11.6814230
  18.0249040  15.2565410  10.9242420  18.9378890   4.8864420   9.8179290
  17.9903800   4.9203400   9.9494720  19.2628880   5.7003370  10.2028650
  16.3158910  13.6245110   5.4932910  16.2055240  12.6819440   5.6182330
  16.3127160  13.9860750   6.3795670  14.4198930  11.8058730  11.7325350
  14.8367720  11.5918840  10.8978810  15.1438750  12.0631520  12.3033970
  11.8579190   9.2510430   4.8495400  10.9308470   9.1847810   5.0783870
  12.0104010  10.1890560   4.7350640  18.3661030  10.2045950  11.8241590
  17.5379660  10.2739040  11.3491720  18.9611510  10.7900260  11.3557420
  15.8876480  10.8130730   5.3530650  15.2688900  10.4750280   4.7056950
  15.8700930  10.1690490   6.0609840  15.3303040   6.9915270  12.7696460
  14.9174220   7.8168980  13.0236450  14.5978990   6.4060310  12.5772820
   6.1764450   6.5518380  11.4114170   6.7279040   6.6613720  10.6367420
   6.6907960   6.9255980  12.1269400   7.0235960  13.2024420  16.4462140
   6.1264490  13.4264390  16.6935540   7.0488830  13.3259360  15.4973540
  14.0641180  10.0517540   2.3603400  14.5034460   9.2139970   2.2141220
  14.7769600  10.6846940   2.4467540   5.8507180  10.0737740  15.0219510
   5.7114950  10.9460540  15.3906910   4.9688540   9.7310550  14.8767450
  12.1736560  14.9913610   6.3284640  12.6132470  15.7337940   5.9140030
  12.1123450  15.2340180   7.2523600   4.1640460   8.6720150   5.1321780
   4.0438060   9.3982240   4.5203050   3.8541350   7.9023060   4.6549690
   1.8025830  11.8435290  10.9390420   1.8806250  11.9784060   9.9946140
   2.4167510  11.1351180  11.1318540   3.0473460  13.5435480   7.3496600
   2.6401540  13.6850070   6.4950200   3.9386470  13.2595640   7.1467810
  19.0035600  13.9899390  15.6868840  19.1298660  13.7511270  14.7686020
  19.0456980  13.1583930  16.1590920  14.5432870  15.4870290   2.2445650
  13.8498030  15.4847580   1.5847930  15.2855730  15.0629610   1.8139820
  18.8559610   6.0431850  16.6518580  18.2403880   6.5511520  16.1234040
  18.5356030   5.1430180  16.5944520   1.8585350  12.8849460  13.4784880
   2.0216390  12.4154820  12.6604250   2.3237800  12.3773020  14.1433720
   6.6304120   2.0155220   8.5145450   6.1872270   2.7964760   8.1829970
   7.1889110   2.3385110   9.2216390  10.9173930   4.8823740  14.1180770
  10.4553300   5.0906760  14.9300710  10.5152040   4.0683090  13.8151440
  15.9178440   6.1032690  15.2477430  15.0672030   5.8038440  15.5686500
  15.7580230   6.3474700  14.3361250   8.6680020   2.5602550  10.3735050
   8.9652350   3.4665380  10.2927070   9.2165580   2.0721330   9.7594620
   6.4218340   7.1388790   6.2426700   6.1959260   6.9225960   7.1473320
   5.6410870   7.5717250   5.8972670  13.6516100   7.1452160   4.8417350
  13.0524990   7.8687960   4.6580970  14.1995710   7.0828940   4.0593800
   8.8617550   8.0374370  16.9086970   8.7661150   7.0969100  16.7587370
   9.7049530   8.2589440  16.5135040  12.2580970   5.7815700   6.8720630
  12.6510540   6.0987900   6.0589320  12.6197820   4.9027580   6.9865150
   3.9928090   4.4488040  15.0620750   3.5991480   5.2963250  15.2693530
   3.3046490   3.8114410  15.2529390   9.2813500   5.0475650   9.3723900
   9.2849560   4.6065600   8.5228440  10.1764620   5.3692980   9.4795720
   5.1315880   4.9302140   8.3318110   4.7915930   5.4077370   9.0885160
   4.3693200   4.4767260   7.9719210   9.3433650   6.0487730   2.3630660
   9.4646470   6.0074210   3.3116480   8.9582160   6.9111880   2.2077390
  13.3062020   3.8255130  10.3794350  13.3234760   4.2763780  11.2236200
  13.0577600   2.9260770  10.5927790   3.4324330  12.2600890  15.6380690
   3.0479120  11.6194560  16.2363650   3.7436520  12.9637010  16.2075420
   2.4461960   3.8521120   7.2482780   2.1608880   3.4876790   8.0861400
   2.3840820   3.1201580   6.6345920   7.3720840   8.1486070  13.4373520
   7.0677910   9.0278050  13.6623880   8.3267300   8.2085860  13.4730960
   5.9002630  12.3547060   4.0340370   5.1264890  11.8144680   3.8739090
   6.6297260  11.8353670   3.6958130  16.6590610  11.3512420   9.8266760
  17.3789730  11.8467710   9.4362870  16.4572430  10.6730310   9.1820630
  12.1200550   2.7450380   3.9696150  11.3065160   2.2463550   3.8941460
  11.9262500   3.5848630   3.5532500  12.0409410  11.4221480  15.7135760
  11.9746720  10.5017150  15.4593350  11.4114550  11.5196920  16.4280400
  14.8348940   7.1170030   2.2658310  15.7228560   7.4287260   2.0909650
  14.8054030   6.2442280   1.8738890   5.9440030  12.0227440   7.6719180
   6.4618700  11.2195700   7.6176070   5.4924050  11.9606580   8.5136010
  10.8309530  13.2893720   2.9446480  11.1725230  14.0335950   2.4489800
  10.0022240  13.6024840   3.3071310   3.4284570   8.9888810  14.5844880
   3.0699510   9.6542660  15.1718220   3.1339130   8.1572360  14.9557500
  11.9726140  14.2442050  15.4639560  11.9870680  13.3123010  15.2458470
  11.2651240  14.3301810  16.1029330  18.1837350  10.8849390  14.8108140
  17.4585540  11.4778170  14.6137530  18.7112810  10.8772930  14.0121510
  18.1350460  15.2824130   4.4620300  17.4926620  14.6279750   4.7364020
  17.7481120  15.6879220   3.6860970  13.7136940  12.6109560   8.3091990
  14.0660760  12.0137690   7.6493360  12.8299270  12.2853790   8.4800240
   9.8000220  13.3707250   5.7162400  10.4871350  13.9176460   6.0969990
   9.0132640  13.9147980   5.7512010   9.1027430  10.3753280   5.3287760
   9.5590210  11.1858530   5.5547950   8.7515640  10.0576420   6.1606250
  11.4060040  15.8859620  12.5580060  12.0502260  16.0919000  13.2353480
  11.7689480  15.1248020  12.1050910  12.6792120  13.8891970  11.2757510
  13.3214350  13.1885130  11.3889680  13.2041470  14.6690410  11.0954400
  14.4529740  14.6886870  14.4793570  14.7885980  15.2753560  15.1571490
  13.5330080  14.5579580  14.7091360  16.1064090  12.0912530   2.6610810
  15.8185790  12.5525220   3.4488690  16.9016260  11.6310300   2.9295030
   2.2905730  16.4662310  16.2483510   2.3996850  15.5257050  16.1078900
   1.6386290  16.7317060  15.5997240   8.3232490  15.5838650   2.5914780
   8.3142590  16.3168340   1.9759290   7.4030850  15.3370230   2.6841740
   3.9239130  10.8053540   3.3361540   3.3167080  11.5452440   3.3456840
   4.3988480  10.8952900   2.5099740  13.4971920   4.9704360  13.0118430
  13.8652740   4.1499570  13.3398000  12.6370120   5.0306250  13.4274080
  16.8633950   3.9261300   3.8205990  16.2347110   4.0306970   3.1064220
  16.3685870   4.1458080   4.6099870   8.8317980   6.2047250   5.2363870
   8.1234130   6.6733590   5.6777480   9.1162460   5.5469260   5.8709060
  10.4573910   7.6243950  13.2356400  10.9559160   8.0989770  13.9008250
  10.5996860   6.7007470  13.4426430  12.8633410   2.9297910   6.6759660
  12.7401190   2.9484040   5.7269170  13.8117970   2.9776850   6.7958060
   7.0353000   4.5132330   2.6114580   7.8843530   4.9502480   2.5454770
   6.6684270   4.8252590   3.4386640  17.6640770   3.8411910  14.0784790
  17.1614370   4.5817310  14.4178600  18.4797430   4.2295910  13.7621580
  15.9562780   9.0845090   7.5246150  15.0152920   9.0995320   7.6993840
  16.2706850   8.2981050   7.9706450   4.6291180   8.1989760   1.7683000
   4.7094770   7.2517270   1.8800400   5.5210930   8.5296640   1.8743660
  17.9588360  16.2553940   9.2000410  18.0835780  17.0785110   9.6724220
  18.8253920  16.0444670   8.8524560   9.2099920  11.4275670  16.5374690
   8.4445590  11.9960670  16.4529360   9.3915880  11.1351880  15.6442920
   7.9663450  10.7629820   3.0592750   8.3879870  10.5969690   3.9024140
   8.0914290   9.9530050   2.5647890   6.1290870   6.7426370  15.8663730
   5.5987330   6.2517320  15.2387070   6.7978940   7.1710570  15.3321660
  15.0268930  11.2095830  15.6304920  15.4409950  11.3640910  16.4795340
  14.0919930  11.3351050  15.7930700   6.6163170   3.7088740  15.9461020
   6.5220040   3.0909490  15.2211890   6.0360560   4.4355030  15.7190930
   9.3824610   2.2661980  12.9788410   8.9341910   2.2886240  12.1333960
   8.7489810   1.8681000  13.5758710   9.7884160  11.1616310  13.6000850
  10.2072270  12.0049040  13.4277090   8.8692790  11.2988350  13.3707630
  12.1248060   8.8932490  14.9838690  12.2444270   8.2973630  15.7233530
  12.9842060   8.9302180  14.5639990  14.4635960   9.4469680  13.5601200
  13.9371180   9.9712300  12.9566340  14.8067300  10.0797070  14.1910930
   8.8916830   5.4353840  16.2414510   9.4816520   5.1269690  16.9292330
   8.0737070   4.9633590  16.3974410  13.7110260   5.0519650  16.4747530
  13.0225780   4.3901190  16.4097520  14.4316280   4.6057920  16.9195990
   1.8981080  16.0295120   8.2778850   2.2284090  15.1616180   8.0457490
   2.3272080  16.2353640   9.1083810   6.4943000  14.3604130   5.9380820
   6.1938540  14.2369100   6.8384730   6.3880490  13.5012720   5.5296550
  18.0233470  16.3982710  15.3037790  17.4235460  16.4575270  14.5601710
  18.1527370  15.4587690  15.4334640  18.7191380  10.8848010   3.1441700
  19.4810290  11.4544660   3.2501390  18.7345750  10.3175210   3.9150010
   2.2195720   9.4085940   7.3749360   1.5644560   9.1397580   6.7309060
   3.0573670   9.2990420   6.9251340  16.7085110  13.1234690  13.4013950
  15.8944950  13.5531850  13.6639740  17.1159310  13.7353100  12.7883000
  18.6675890   9.1151370   5.2943650  18.2919490   8.3479300   4.8624940
  17.9379010   9.4974070   5.7818580   3.2571650   9.7938510  11.9152700
   3.6244690   9.7065910  12.7948720   2.6882470   9.0305060  11.8159560
  18.0575510   8.2622890  14.9283170  17.8261600   8.0335640  14.0281120
  18.3180060   9.1822440  14.8828060   2.8087650   6.7047600  15.8211120
   1.9143700   6.6714360  16.1604830   3.3485200   6.9034390  16.5862370
  17.9426850   7.3408860   8.5950890  18.4664330   6.8471510   7.9641060
  18.5286270   7.4759220   9.3398460  18.1216570   7.4248730  12.1170440
  17.1719280   7.3912270  12.2315430  18.3029580   8.3348840  11.8820210
  17.4326820   6.5982210   4.5343300  17.9285940   6.3653080   5.3192180
  17.2342890   5.7594050   4.1180940  18.8613980   5.2343160   7.0680980
  18.7513260   5.0799200   8.0063250  19.6221570   4.7064100   6.8256390
   8.3729760  15.8630790  12.6782570   8.1321120  16.1305350  11.7913090
   9.3132400  16.0336520  12.7333430   4.5111760  17.2533450  14.1970630
   3.9172080  17.1218150  14.9360670   4.5035600  16.4171590  13.7312730
  14.8638760   2.7536550  13.7842380  14.5352120   1.9388310  13.4044110
  15.8121060   2.7106360  13.6608070   4.1423990  14.6191830  13.1478670
   3.4158050  13.9997120  13.0804620   4.2033140  15.0132440  12.2776750
   7.7469090  16.8336830   9.9328080   8.2634110  16.2224190   9.4076340
   8.3966470  17.3365610  10.4239090  16.2562670   2.1658620   9.3842660
  16.6970760   2.1103720   8.5364260  15.9870260   3.0816630   9.4552840
   3.0482010   1.7683000   3.8607290   3.8061370   1.8811880   3.2871320
   2.5859180   2.6052200   3.8150720   9.5895820   3.8822270   6.8509600
   8.7770330   3.5079160   6.5105480  10.0937460   3.1267350   7.1530790
   4.0316690  16.6299450   3.8025570   3.5064310  17.0107480   3.0987530
   3.9561270  17.2550220   4.5235280   5.7924450  14.6946560   2.6821150
   5.1633330  15.1631660   3.2306980   5.9072280  13.8495780   3.1167340
  20.7718600  19.0216450  18.6769970  90.0000000  90.0000000  90.0000000
